# OOMMF OVF 2.0
#
# Segment count: 1
#
# Begin: Segment
# Begin: Header
#
# Title: Oxs_TimeDriver::Magnetization
# Desc: Oxs vector field output
# Desc:  MIF source file: /net/archive/groups/plggspinsym/JM/Default/skyrmion_25_09_17.mif
# Desc:  Iteration: 152443, State id: 387353
# Desc:  Stage: 0, Stage iteration: 152443
# Desc:  Stage simulation time: 4.89063e-09 s
# Desc:  Total simulation time: 4.89063e-09 s
# meshunit: m
# meshtype: rectangular
# xbase: -4.9749999999999999e-08
# ybase: -4.9749999999999999e-08
# zbase: 3e-10
# xnodes: 200
# ynodes: 200
# znodes: 1
# xstepsize: 5.0000000000000003e-10
# ystepsize: 5.0000000000000003e-10
# zstepsize: 6e-10
# xmin: -4.9999999999999998e-08
# ymin: -4.9999999999999998e-08
# zmin: 0
# xmax: 5.0000000000000011e-08
# ymax: 5.0000000000000011e-08
# zmax: 6e-10
# valuedim: 3
# valuelabels: Magnetization_x Magnetization_y Magnetization_z
# valueunits: A/m A/m A/m
#
# End: Header
#
# Begin: Data Text
 0 0 -0
 0 0 -0
 0 0 -0
 0 0 -0
 0 0 -0
 0 0 -0
 0 0 -0
 0 0 -0
 0 0 -0
 0 0 -0
 0 0 -0
 0 0 -0
 0 0 -0
 0 0 -0
 0 0 -0
 0 0 -0
 0 0 -0
 0 0 -0
 0 0 -0
 0 0 -0
 0 0 -0
 0 0 -0
 0 0 -0
 0 0 -0
 0 0 -0
 0 0 -0
 0 0 -0
 0 0 -0
 0 0 -0
 0 0 -0
 0 0 -0
 0 0 -0
 0 0 -0
 0 0 -0
 0 0 -0
 0 0 -0
 0 0 -0
 0 0 -0
 0 0 -0
 0 0 -0
 0 0 -0
 0 0 -0
 0 0 -0
 0 0 -0
 0 0 -0
 0 0 -0
 0 0 -0
 0 0 -0
 0 0 -0
 0 0 -0
 0 0 -0
 0 0 -0
 0 0 -0
 0 0 -0
 0 0 -0
 0 0 -0
 0 0 -0
 0 0 -0
 0 0 -0
 0 0 -0
 0 0 -0
 0 0 -0
 0 0 -0
 0 0 -0
 0 0 -0
 0 0 -0
 0 0 -0
 0 0 -0
 0 0 -0
 0 0 -0
 0 0 -0
 0 0 -0
 0 0 -0
 0 0 -0
 0 0 -0
 0 0 -0
 0 0 -0
 0 0 -0
 0 0 -0
 0 0 -0
 0 0 -0
 0 0 -0
 0 0 -0
 0 0 -0
 0 0 -0
 0 0 -0
 0 0 -0
 0 0 -0
 0 0 -0
 0 0 -0
 -108652.36839275519 -726134.15386530536 -819099.41608632752
 -82495.947754099325 -723525.86348321976 -824442.0801214684
 -65611.027868175093 -720817.45099063485 -828322.03602792416
 -52927.526126410266 -718395.64179005043 -831328.08134646784
 -42494.927910056431 -716346.3684666187 -833691.82644824253
 -33426.326495588692 -714675.36241586891 -835536.83763958409
 -25246.059885064653 -713367.48179631878 -836940.5429155993
 -17657.833180477624 -712404.65617287753 -837954.53742465947
 -10451.537749774388 -711771.62769927632 -838613.09038256027
 -3460.6102482248484 -711457.79939857905 -838937.31818988803
 3460.6102482222041 -711457.79939820641 -838937.31819020363
 10451.537749782292 -711771.62769964745 -838613.09038224479
 17657.833180464608 -712404.65617250861 -837954.53742497298
 25246.059885082464 -713367.48179668374 -836940.54291528801
 33426.326495566514 -714675.36241551 -835536.83763989178
 42494.927910082253 -716346.36846696911 -833691.82644794008
 52927.52612638189 -718395.64178971294 -831328.08134676132
 65611.027868204095 -720817.45099095115 -828322.03602764627
 82495.947754073291 -723525.86348294537 -824442.08012171194
 108652.36839277094 -726134.15386547463 -819099.41608617501
 0 0 -0
 0 0 -0
 0 0 -0
 0 0 -0
 0 0 -0
 0 0 -0
 0 0 -0
 0 0 -0
 0 0 -0
 0 0 -0
 0 0 -0
 0 0 -0
 0 0 -0
 0 0 -0
 0 0 -0
 0 0 -0
 0 0 -0
 0 0 -0
 0 0 -0
 0 0 -0
 0 0 -0
 0 0 -0
 0 0 -0
 0 0 -0
 0 0 -0
 0 0 -0
 0 0 -0
 0 0 -0
 0 0 -0
 0 0 -0
 0 0 -0
 0 0 -0
 0 0 -0
 0 0 -0
 0 0 -0
 0 0 -0
 0 0 -0
 0 0 -0
 0 0 -0
 0 0 -0
 0 0 -0
 0 0 -0
 0 0 -0
 0 0 -0
 0 0 -0
 0 0 -0
 0 0 -0
 0 0 -0
 0 0 -0
 0 0 -0
 0 0 -0
 0 0 -0
 0 0 -0
 0 0 -0
 0 0 -0
 0 0 -0
 0 0 -0
 0 0 -0
 0 0 -0
 0 0 -0
 0 0 -0
 0 0 -0
 0 0 -0
 0 0 -0
 0 0 -0
 0 0 -0
 0 0 -0
 0 0 -0
 0 0 -0
 0 0 -0
 0 0 -0
 0 0 -0
 0 0 -0
 0 0 -0
 0 0 -0
 0 0 -0
 0 0 -0
 0 0 -0
 0 0 -0
 0 0 -0
 0 0 -0
 0 0 -0
 0 0 -0
 0 0 -0
 0 0 -0
 0 0 -0
 0 0 -0
 0 0 -0
 0 0 -0
 0 0 -0
 0 0 -0
 0 0 -0
 0 0 -0
 0 0 -0
 0 0 -0
 0 0 -0
 0 0 -0
 0 0 -0
 0 0 -0
 0 0 -0
 0 0 -0
 0 0 -0
 0 0 -0
 0 0 -0
 0 0 -0
 0 0 -0
 0 0 -0
 0 0 -0
 0 0 -0
 0 0 -0
 0 0 -0
 0 0 -0
 0 0 -0
 0 0 -0
 0 0 -0
 0 0 -0
 0 0 -0
 0 0 -0
 0 0 -0
 0 0 -0
 0 0 -0
 0 0 -0
 0 0 -0
 0 0 -0
 0 0 -0
 0 0 -0
 0 0 -0
 0 0 -0
 0 0 -0
 0 0 -0
 0 0 -0
 0 0 -0
 0 0 -0
 0 0 -0
 0 0 -0
 0 0 -0
 0 0 -0
 0 0 -0
 0 0 -0
 0 0 -0
 0 0 -0
 0 0 -0
 0 0 -0
 0 0 -0
 0 0 -0
 0 0 -0
 0 0 -0
 0 0 -0
 0 0 -0
 0 0 -0
 0 0 -0
 0 0 -0
 0 0 -0
 0 0 -0
 0 0 -0
 0 0 -0
 0 0 -0
 0 0 -0
 0 0 -0
 0 0 -0
 0 0 -0
 0 0 -0
 0 0 -0
 0 0 -0
 0 0 -0
 0 0 -0
 0 0 -0
 0 0 -0
 0 0 -0
 0 0 -0
 0 0 -0
 0 0 -0
 0 0 -0
 -151176.55519677314 -717316.94028116704 -820123.19583371247
 -125084.00982525137 -713375.65140108985 -827918.57720074581
 -108772.55972697803 -708687.64061902172 -834224.40523176105
 -97398.945831529723 -703805.25792649912 -839744.96382289834
 -89241.416917314811 -698789.08251523774 -844825.30008523224
 -83805.404084209673 -693488.09097493975 -849735.79536360339
 -81460.13483721159 -687523.58361669595 -854795.62961163954
 -84033.530980074269 -679985.83072187076 -860556.58482665045
 -73293.085086437568 -675202.65118152858 -865291.5713884813
 -61473.653348109445 -671652.17969115207 -868967.39838739659
 -50731.264111825796 -668830.55602799775 -871832.56773585558
 -41177.253195309233 -666553.3810220717 -874077.2414765954
 -32576.382223500848 -664735.34251282108 -875822.87235238997
 -24684.334092523208 -663327.0205227813 -877147.62012718141
 -17297.83837534273 -662295.87404526095 -878103.04635057726
 -10249.452550268832 -661619.91393972165 -878722.95873091591
 -3395.3514863954738 -661285.29515454883 -879028.00296728057
 3395.3514864035201 -661285.29515572125 -879028.00296639849
 10249.45255024482 -661619.91393855284 -878722.95873179601
 17297.838375382224 -662295.87404642231 -878103.04634970089
 24684.334092468995 -663327.0205216324 -877147.62012805196
 32576.382223568555 -664735.34251395252 -875822.87235152849
 41177.253195229823 -666553.38102096517 -874077.24147744291
 50731.264111914272 -668830.55602906866 -871832.56773502869
 61473.653348015832 -671652.17969013494 -868967.39838818973
 73293.085086530453 -675202.65118245932 -865291.57138774695
 84033.530979990741 -679985.83072109113 -860556.58482727478
 81460.13483727428 -687523.58361720387 -854795.62961122533
 83805.404084147012 -693488.09097451647 -849735.7953639552
 89241.416917379684 -698789.08251562191 -844825.30008490745
 97398.945831463934 -703805.25792614359 -839744.96382320381
 108772.55972704168 -708687.64061934594 -834224.40523147746
 125084.00982519572 -713375.65140081441 -827918.57720099157
 151176.55519680676 -717316.94028133387 -820123.19583356031
 0 0 -0
 0 0 -0
 0 0 -0
 0 0 -0
 0 0 -0
 0 0 -0
 0 0 -0
 0 0 -0
 0 0 -0
 0 0 -0
 0 0 -0
 0 0 -0
 0 0 -0
 0 0 -0
 0 0 -0
 0 0 -0
 0 0 -0
 0 0 -0
 0 0 -0
 0 0 -0
 0 0 -0
 0 0 -0
 0 0 -0
 0 0 -0
 0 0 -0
 0 0 -0
 0 0 -0
 0 0 -0
 0 0 -0
 0 0 -0
 0 0 -0
 0 0 -0
 0 0 -0
 0 0 -0
 0 0 -0
 0 0 -0
 0 0 -0
 0 0 -0
 0 0 -0
 0 0 -0
 0 0 -0
 0 0 -0
 0 0 -0
 0 0 -0
 0 0 -0
 0 0 -0
 0 0 -0
 0 0 -0
 0 0 -0
 0 0 -0
 0 0 -0
 0 0 -0
 0 0 -0
 0 0 -0
 0 0 -0
 0 0 -0
 0 0 -0
 0 0 -0
 0 0 -0
 0 0 -0
 0 0 -0
 0 0 -0
 0 0 -0
 0 0 -0
 0 0 -0
 0 0 -0
 0 0 -0
 0 0 -0
 0 0 -0
 0 0 -0
 0 0 -0
 0 0 -0
 0 0 -0
 0 0 -0
 0 0 -0
 0 0 -0
 0 0 -0
 0 0 -0
 0 0 -0
 0 0 -0
 0 0 -0
 0 0 -0
 0 0 -0
 0 0 -0
 0 0 -0
 0 0 -0
 0 0 -0
 0 0 -0
 0 0 -0
 0 0 -0
 0 0 -0
 0 0 -0
 0 0 -0
 0 0 -0
 0 0 -0
 0 0 -0
 0 0 -0
 0 0 -0
 0 0 -0
 0 0 -0
 0 0 -0
 0 0 -0
 0 0 -0
 0 0 -0
 0 0 -0
 0 0 -0
 0 0 -0
 0 0 -0
 0 0 -0
 0 0 -0
 0 0 -0
 0 0 -0
 0 0 -0
 0 0 -0
 0 0 -0
 0 0 -0
 0 0 -0
 0 0 -0
 0 0 -0
 0 0 -0
 0 0 -0
 0 0 -0
 0 0 -0
 0 0 -0
 0 0 -0
 0 0 -0
 0 0 -0
 0 0 -0
 0 0 -0
 0 0 -0
 0 0 -0
 0 0 -0
 0 0 -0
 0 0 -0
 0 0 -0
 0 0 -0
 0 0 -0
 0 0 -0
 0 0 -0
 0 0 -0
 0 0 -0
 0 0 -0
 0 0 -0
 0 0 -0
 0 0 -0
 0 0 -0
 0 0 -0
 0 0 -0
 0 0 -0
 0 0 -0
 0 0 -0
 0 0 -0
 0 0 -0
 0 0 -0
 0 0 -0
 0 0 -0
 0 0 -0
 0 0 -0
 0 0 -0
 0 0 -0
 0 0 -0
 -182342.69991667822 -709301.02967254131 -820757.69207030197
 -156270.72636805312 -704286.75635283312 -830397.26932740223
 -140507.13177421363 -697907.26838189072 -838560.18905044138
 -130602.07831878548 -690734.80651002412 -846066.5010590913
 -125528.21151963453 -682558.49299214827 -853438.08900058444
 -126571.37791598929 -672394.78993655229 -861315.81476170977
 -115402.99488464855 -665454.05562208279 -868247.11265156313
 -103916.13571961375 -659593.88586029748 -874149.49663819838
 -94235.452437414569 -654149.03018530493 -879322.87915846973
 -86536.493067419317 -648841.14344108303 -884034.27871641971
 -80678.46288533909 -643477.50026127382 -888497.43515890988
 -76410.636382928686 -637894.97973844898 -892889.36015165935
 -72804.264494907475 -632117.08890774054 -897288.98632612196
 -65348.409677250129 -627342.62191039731 -901205.20420559205
 -56447.64770205722 -623525.23627236206 -904450.07756116637
 -47518.564621698766 -620464.79312549054 -907064.17992776842
 -39053.958938607779 -618010.69607702212 -909141.11546316952
 -31138.474624823102 -616065.79840249941 -910765.24276935938
 -23710.821859210955 -614567.46956524672 -912000.34116163047
 -16666.499332575866 -613474.40130001516 -912891.77165181236
 -9893.041829716296 -612759.44311537256 -913470.30197828182
 -3279.9964400926256 -612405.94169915305 -913755.00228175335
 3279.9964400789486 -612405.94169711787 -913755.00228311692
 9893.0418297570704 -612759.44311740156 -913470.3019769208
 16666.499332508625 -613474.40129799885 -912891.77165316872
 23710.821859303505 -614567.46956724371 -912000.34116028261
 31138.474624706956 -616065.79840053071 -910765.24277069524
 39053.958938745156 -618010.69607895263 -909141.11546185135
 47518.564621543374 -620464.79312361288 -907064.17992906133
 56447.647702226495 -623525.23627416755 -904450.07755991095
 65348.409677071904 -627342.62190869264 -901205.20420679159
 72804.264495089708 -632117.08890930738 -897288.98632500309
 76410.636382744618 -637894.97973705083 -892889.36015267426
 80678.462885530404 -643477.50026255636 -888497.43515796377
 86536.493067220668 -648841.14343988581 -884034.27871731773
 94235.45243761719 -654149.03018642589 -879322.87915761385
 103916.13571941323 -659593.88585925905 -874149.49663900549
 115402.99488483716 -665454.05562301248 -868247.11265082518
 126571.37791582792 -672394.78993578895 -861315.81476232933
 125528.21151974505 -682558.49299263314 -853438.0890001806
 130602.07831868729 -690734.80650963401 -846066.5010594253
 140507.13177430406 -697907.268382226 -838560.18905014661
 156270.72636797608 -704286.75635255664 -830397.26932765136
 182342.69991672426 -709301.02967270557 -820757.69207015005
 0 0 -0
 0 0 -0
 0 0 -0
 0 0 -0
 0 0 -0
 0 0 -0
 0 0 -0
 0 0 -0
 0 0 -0
 0 0 -0
 0 0 -0
 0 0 -0
 0 0 -0
 0 0 -0
 0 0 -0
 0 0 -0
 0 0 -0
 0 0 -0
 0 0 -0
 0 0 -0
 0 0 -0
 0 0 -0
 0 0 -0
 0 0 -0
 0 0 -0
 0 0 -0
 0 0 -0
 0 0 -0
 0 0 -0
 0 0 -0
 0 0 -0
 0 0 -0
 0 0 -0
 0 0 -0
 0 0 -0
 0 0 -0
 0 0 -0
 0 0 -0
 0 0 -0
 0 0 -0
 0 0 -0
 0 0 -0
 0 0 -0
 0 0 -0
 0 0 -0
 0 0 -0
 0 0 -0
 0 0 -0
 0 0 -0
 0 0 -0
 0 0 -0
 0 0 -0
 0 0 -0
 0 0 -0
 0 0 -0
 0 0 -0
 0 0 -0
 0 0 -0
 0 0 -0
 0 0 -0
 0 0 -0
 0 0 -0
 0 0 -0
 0 0 -0
 0 0 -0
 0 0 -0
 0 0 -0
 0 0 -0
 0 0 -0
 0 0 -0
 0 0 -0
 0 0 -0
 0 0 -0
 0 0 -0
 0 0 -0
 0 0 -0
 0 0 -0
 0 0 -0
 0 0 -0
 0 0 -0
 0 0 -0
 0 0 -0
 0 0 -0
 0 0 -0
 0 0 -0
 0 0 -0
 0 0 -0
 0 0 -0
 0 0 -0
 0 0 -0
 0 0 -0
 0 0 -0
 0 0 -0
 0 0 -0
 0 0 -0
 0 0 -0
 0 0 -0
 0 0 -0
 0 0 -0
 0 0 -0
 0 0 -0
 0 0 -0
 0 0 -0
 0 0 -0
 0 0 -0
 0 0 -0
 0 0 -0
 0 0 -0
 0 0 -0
 0 0 -0
 0 0 -0
 0 0 -0
 0 0 -0
 0 0 -0
 0 0 -0
 0 0 -0
 0 0 -0
 0 0 -0
 0 0 -0
 0 0 -0
 0 0 -0
 0 0 -0
 0 0 -0
 0 0 -0
 0 0 -0
 0 0 -0
 0 0 -0
 0 0 -0
 0 0 -0
 0 0 -0
 0 0 -0
 0 0 -0
 0 0 -0
 0 0 -0
 0 0 -0
 0 0 -0
 0 0 -0
 0 0 -0
 0 0 -0
 0 0 -0
 0 0 -0
 0 0 -0
 0 0 -0
 0 0 -0
 0 0 -0
 0 0 -0
 0 0 -0
 0 0 -0
 0 0 -0
 0 0 -0
 0 0 -0
 0 0 -0
 -206906.23690568967 -701002.81687205285 -822061.34799476713
 -181084.91267183825 -695010.53092551383 -833167.82001303183
 -166188.10171170006 -687006.23862714984 -842854.63926873973
 -158307.59351251941 -677426.86522706458 -852074.84888647392
 -157777.66122435743 -665376.65051095153 -861614.83423476352
 -146077.68747035426 -656797.77416079701 -870217.2102876018
 -134725.68249099 -649084.8595989648 -877802.84547085501
 -125784.71880647217 -641434.34611198795 -884726.05033573136
 -119316.52119397539 -633506.70998632559 -891309.60736012971
 -114359.80922819313 -625282.5045856447 -897743.62904583954
 -106348.59566742808 -618119.53408291948 -903669.30775847449
 -97569.034313365788 -611811.72935795097 -908937.12178741558
 -89380.530186294811 -606041.51220948424 -913632.75242433092
 -82243.458242593566 -600576.64659090294 -917901.7949355609
 -76170.756302019712 -595261.40971623699 -921879.53116826317
 -70867.942751035109 -590024.43979552342 -925661.32852907607
 -65597.004063261062 -584961.72667424881 -929256.05264867994
 -59041.846590453424 -580476.21443461988 -932502.77470195375
 -51644.319024977078 -576688.10088659613 -935288.02975781623
 -44021.461919550798 -573561.94146643626 -937597.36038009298
 -36538.910480310842 -571022.69708311744 -939466.86340542894
 -29343.397302730158 -569000.21145284339 -940945.12294891756
 -22456.222040899956 -567439.54218858865 -942076.47463061847
 -15837.473474352304 -566300.58612568281 -942895.9754859797
 -9420.1426012447882 -565555.65096669726 -943428.88792585081
 -3126.2291977891405 -565187.36912164616 -943691.40320146759
 3126.2291978087237 -565187.36912459426 -943691.40319970192
 9420.1426011862659 -565555.6509637573 -943428.88792761392
 15837.473474448958 -566300.58612860611 -942895.97548422217
 22456.222040766508 -567439.5421856913 -942076.47463236691
 29343.397302898466 -569000.21145570441 -940945.12294718227
 36538.910480110288 -571022.6970803052 -939466.86340714584
 44021.461919780362 -573561.94146918447 -937597.36037840089
 51644.319024722281 -576688.10088393022 -935288.02975947363
 59041.846590729408 -580476.21443718125 -932502.77470034163
 65597.0040629672 -584961.72667181387 -929256.0526502335
 70867.942751345108 -590024.43979781982 -925661.32852758886
 76170.756301693444 -595261.40971406538 -921879.53116969252
 82243.458242934095 -600576.64659296244 -917901.79493418266
 89380.530185944503 -606041.51220753347 -913632.75242565887
 97569.034313719123 -611811.72935978428 -908937.1217861434
 106348.59566708023 -618119.53408122354 -903669.3077596752
 114359.8092285257 -625282.50458717172 -897743.62904473371
 119316.52119366465 -633506.70998499461 -891309.60736111749
 125784.71880676897 -641434.34611317306 -884726.0503348303
 134725.68249070822 -649084.85959790344 -877802.84547168273
 146077.68747061162 -656797.77416172449 -870217.21028685872
 157777.66122414317 -665376.65051020589 -861614.83423537866
 158307.59351266004 -677426.86522752652 -852074.84888608044
 166188.10171158318 -687006.23862679268 -842854.63926905405
 181084.91267193441 -695010.53092579544 -833167.82001277595
 206906.23690563318 -701002.81687188963 -822061.34799492091
 0 0 -0
 0 0 -0
 0 0 -0
 0 0 -0
 0 0 -0
 0 0 -0
 0 0 -0
 0 0 -0
 0 0 -0
 0 0 -0
 0 0 -0
 0 0 -0
 0 0 -0
 0 0 -0
 0 0 -0
 0 0 -0
 0 0 -0
 0 0 -0
 0 0 -0
 0 0 -0
 0 0 -0
 0 0 -0
 0 0 -0
 0 0 -0
 0 0 -0
 0 0 -0
 0 0 -0
 0 0 -0
 0 0 -0
 0 0 -0
 0 0 -0
 0 0 -0
 0 0 -0
 0 0 -0
 0 0 -0
 0 0 -0
 0 0 -0
 0 0 -0
 0 0 -0
 0 0 -0
 0 0 -0
 0 0 -0
 0 0 -0
 0 0 -0
 0 0 -0
 0 0 -0
 0 0 -0
 0 0 -0
 0 0 -0
 0 0 -0
 0 0 -0
 0 0 -0
 0 0 -0
 0 0 -0
 0 0 -0
 0 0 -0
 0 0 -0
 0 0 -0
 0 0 -0
 0 0 -0
 0 0 -0
 0 0 -0
 0 0 -0
 0 0 -0
 0 0 -0
 0 0 -0
 0 0 -0
 0 0 -0
 0 0 -0
 0 0 -0
 0 0 -0
 0 0 -0
 0 0 -0
 0 0 -0
 0 0 -0
 0 0 -0
 0 0 -0
 0 0 -0
 0 0 -0
 0 0 -0
 0 0 -0
 0 0 -0
 0 0 -0
 0 0 -0
 0 0 -0
 0 0 -0
 0 0 -0
 0 0 -0
 0 0 -0
 0 0 -0
 0 0 -0
 0 0 -0
 0 0 -0
 0 0 -0
 0 0 -0
 0 0 -0
 0 0 -0
 0 0 -0
 0 0 -0
 0 0 -0
 0 0 -0
 0 0 -0
 0 0 -0
 0 0 -0
 0 0 -0
 0 0 -0
 0 0 -0
 0 0 -0
 0 0 -0
 0 0 -0
 0 0 -0
 0 0 -0
 0 0 -0
 0 0 -0
 0 0 -0
 0 0 -0
 0 0 -0
 0 0 -0
 0 0 -0
 0 0 -0
 0 0 -0
 0 0 -0
 0 0 -0
 0 0 -0
 0 0 -0
 0 0 -0
 0 0 -0
 0 0 -0
 0 0 -0
 0 0 -0
 0 0 -0
 0 0 -0
 0 0 -0
 0 0 -0
 0 0 -0
 0 0 -0
 0 0 -0
 0 0 -0
 0 0 -0
 0 0 -0
 0 0 -0
 0 0 -0
 0 0 -0
 0 0 -0
 -234988.41348810101 -697789.2128229395 -817233.54066893738
 -208092.72562863718 -691254.36801596044 -829978.80469280656
 -191983.11689707395 -682361.80156053742 -841144.96645794762
 -183145.29598081775 -671585.60886181903 -851722.12048871815
 -182086.4940896045 -657938.22159733076 -862532.2053300374
 -170283.16587634641 -647953.77133173007 -872444.58485116239
 -159228.15719477393 -638613.44973563799 -881373.50525932177
 -150889.43305560295 -629019.62080853665 -889700.34035625926
 -144636.35018742719 -619022.83080612333 -897714.3538705582
 -135929.93284938441 -610087.30291211267 -905161.0553824032
 -126928.98241553406 -601890.06643888366 -911930.57923569682
 -118854.73918844901 -594047.80126782297 -918139.83726952551
 -111910.11841398572 -586346.49770722631 -923944.75485444313
 -105520.95620060613 -578815.49053598777 -929428.83305721369
 -98405.602248704221 -571848.63205479609 -934508.14841986715
 -90974.820445638252 -565492.99145132664 -939117.27631021349
 -83800.027800914948 -559639.66401493305 -943282.0372517535
 -77183.499135696271 -554158.38896895794 -947075.06956761295
 -71158.494578755184 -548950.8126480988 -950573.23439189966
 -65530.229250323908 -543981.29812167492 -953829.19663232029
 -59897.242847999667 -539310.93724627863 -956846.9225878024
 -53794.270974231527 -535100.85022097628 -959569.30781634513
 -47271.729368884808 -531445.0611340655 -961941.54219405877
 -40571.163808507634 -528357.8592705311 -963946.03231419798
 -33900.084602987416 -525810.86291963584 -965595.00863437471
 -27375.937439265315 -523762.50872233702 -966914.36668724986
 -21039.953883989088 -522172.76862797607 -967932.29104310472
 -14883.656298574067 -521008.71055917791 -968673.52616691671
 -8869.9051817608179 -520245.91962069087 -969157.1120824985
 -2946.3797935920375 -519868.44819195563 -969395.74757711811
 2946.3797935661605 -519868.44818805443 -969395.74757921044
 8869.9051818381558 -520245.91962458205 -969157.11208040873
 14883.656298446122 -521008.71055530687 -968673.52616900089
 21039.953884166203 -522172.76863181597 -967932.29104102927
 27375.937439041052 -523762.50871854002 -966914.36668931274
 33900.084603256189 -525810.86292337638 -965595.00863232836
 40571.163808197467 -528357.85926686216 -963946.0323162222
 47271.729369232868 -531445.06113764644 -961941.54219206341
 53794.27097384911 -535100.85021750128 -959569.30781830405
 59897.242848413218 -539310.9372496322 -956846.92258588667
 65530.229249881653 -543981.29811845254 -953829.19663418853
 71158.494579223887 -548950.81265119079 -950573.23439007881
 77183.499135204533 -554158.38896599482 -947075.06956938712
 83800.027801424658 -559639.66401776532 -943282.03725002799
 90974.820445116988 -565492.99144863395 -939117.27631188533
 98405.602249229589 -571848.63205733453 -934508.14841825853
 105520.95620008373 -578815.4905336207 -929428.83305874711
 111910.11841450018 -586346.49770941178 -923944.754852994
 118854.73918794398 -594047.80126580724 -918139.83727089525
 126928.98241602513 -601890.06644073594 -911930.579234406
 135929.93284891613 -610087.3029104328 -905161.05538360565
 144636.35018786119 -619022.83080760716 -897714.35386946471
 150889.43305521231 -629019.62080727099 -889700.34035722027
 159228.15719512984 -638613.44973673183 -881373.50525846507
 170283.16587602958 -647953.77133079711 -872444.584851917
 182086.49408986347 -657938.22159806755 -862532.20532942086
 183145.29598065154 -671585.60886137001 -851722.12048910803
 191983.1168972087 -682361.80156087864 -841144.96645764029
 208092.7256285288 -691254.3680156956 -829978.80469305394
 234988.41348816355 -697789.21282309049 -817233.54066879035
 0 0 -0
 0 0 -0
 0 0 -0
 0 0 -0
 0 0 -0
 0 0 -0
 0 0 -0
 0 0 -0
 0 0 -0
 0 0 -0
 0 0 -0
 0 0 -0
 0 0 -0
 0 0 -0
 0 0 -0
 0 0 -0
 0 0 -0
 0 0 -0
 0 0 -0
 0 0 -0
 0 0 -0
 0 0 -0
 0 0 -0
 0 0 -0
 0 0 -0
 0 0 -0
 0 0 -0
 0 0 -0
 0 0 -0
 0 0 -0
 0 0 -0
 0 0 -0
 0 0 -0
 0 0 -0
 0 0 -0
 0 0 -0
 0 0 -0
 0 0 -0
 0 0 -0
 0 0 -0
 0 0 -0
 0 0 -0
 0 0 -0
 0 0 -0
 0 0 -0
 0 0 -0
 0 0 -0
 0 0 -0
 0 0 -0
 0 0 -0
 0 0 -0
 0 0 -0
 0 0 -0
 0 0 -0
 0 0 -0
 0 0 -0
 0 0 -0
 0 0 -0
 0 0 -0
 0 0 -0
 0 0 -0
 0 0 -0
 0 0 -0
 0 0 -0
 0 0 -0
 0 0 -0
 0 0 -0
 0 0 -0
 0 0 -0
 0 0 -0
 0 0 -0
 0 0 -0
 0 0 -0
 0 0 -0
 0 0 -0
 0 0 -0
 0 0 -0
 0 0 -0
 0 0 -0
 0 0 -0
 0 0 -0
 0 0 -0
 0 0 -0
 0 0 -0
 0 0 -0
 0 0 -0
 0 0 -0
 0 0 -0
 0 0 -0
 0 0 -0
 0 0 -0
 0 0 -0
 0 0 -0
 0 0 -0
 0 0 -0
 0 0 -0
 0 0 -0
 0 0 -0
 0 0 -0
 0 0 -0
 0 0 -0
 0 0 -0
 0 0 -0
 0 0 -0
 0 0 -0
 0 0 -0
 0 0 -0
 0 0 -0
 0 0 -0
 0 0 -0
 0 0 -0
 0 0 -0
 0 0 -0
 0 0 -0
 0 0 -0
 0 0 -0
 0 0 -0
 0 0 -0
 0 0 -0
 0 0 -0
 0 0 -0
 0 0 -0
 0 0 -0
 0 0 -0
 0 0 -0
 0 0 -0
 0 0 -0
 0 0 -0
 0 0 -0
 0 0 -0
 0 0 -0
 0 0 -0
 0 0 -0
 0 0 -0
 0 0 -0
 0 0 -0
 0 0 -0
 -259534.24207786954 -688361.87280601461 -817801.87653004436
 -232456.01601073521 -680832.24690600112 -832124.7816243323
 -217203.74950117327 -669954.86492282653 -844975.15358078398
 -211633.43910962116 -655543.67873252556 -857597.67532594292
 -197451.93287404432 -644740.81716687081 -869092.63768789335
 -184791.62846081227 -634396.72624168242 -879427.56824234093
 -175314.57244454182 -623604.16651641903 -889034.66984811693
 -168314.86026157797 -612225.77524697804 -898248.13272189
 -159189.38718577102 -601863.41469404392 -906873.29272630124
 -150006.47971794353 -592125.18904191849 -914814.63507352246
 -141802.38754550982 -582627.96395826829 -922191.27001953125
 -134364.87224333739 -573306.78480140772 -929120.77342383435
 -126520.90324332012 -564535.47525184043 -935570.49879988888
 -118650.13825679214 -556313.3543543655 -941508.14996931294
 -111220.24715245175 -548507.20818396413 -946979.35520980635
 -104348.96687362179 -541015.4916099736 -952057.52502169041
 -97796.593497358685 -533845.41086596576 -956788.85005922825
 -91161.275120961203 -527118.98509224446 -961163.46033005358
 -84496.854581236359 -520880.09038743528 -965165.38116731821
 -78014.012395427329 -515094.51849078824 -968809.29541923222
 -71859.28457476171 -509698.46483175643 -972133.59070065804
 -66048.948745015179 -504637.47044788033 -975181.29585715651
 -60470.548537734954 -499892.68162666011 -977982.93421493389
 -54919.752123447455 -495496.13230538304 -980544.44248953112
 -49200.366571257713 -491520.68461292313 -982846.24460130953
 -43291.860953854863 -488023.88244755642 -984864.71402724436
 -37283.492779417087 -485027.15256614838 -986589.37883992121
 -31280.674111070592 -482523.21091394481 -988024.73165222618
 -25358.504350430536 -480489.94533098635 -989184.69392370526
 -19552.496802544385 -478901.06976801698 -990086.59482079418
 -13865.214020315723 -477732.2593894595 -990747.01320711209
 -8276.3302356273161 -476964.11353997292 -991179.46747945633
 -2751.4132408775977 -476583.38088217506 -991393.31790772791
 2751.4132409100976 -476583.38088705874 -991393.31790538027
 8276.3302355300966 -476964.11353510065 -991179.46748180198
 13865.214020476784 -477732.25939430861 -990747.01320477121
 19552.496802320948 -478901.0697632028 -990086.59482312715
 25358.504350714287 -480489.94533575262 -989184.69392138312
 31280.67411072912 -482523.21090924076 -988024.73165453458
 37283.492779813248 -485027.15257077588 -986589.37883763108
 43291.860953407377 -488023.88244302111 -984864.71402951144
 49200.366571753017 -491520.68461735104 -982846.24459907017
 54919.752122907681 -495496.13230107614 -980544.44249173778
 60470.548538315888 -499892.68163083668 -977982.93421276356
 66048.948744396621 -504637.47044384014 -975181.29585928936
 71859.284575413621 -509698.4648356564 -972133.59069856477
 78014.012394747377 -515094.51848703425 -968809.29542128276
 84496.854581937994 -520880.09039103449 -965165.38116531447
 91161.275120244609 -527118.98508881172 -961163.46033200412
 97796.593498083646 -533845.41086922062 -956788.85005733825
 104348.96687289402 -541015.49160690431 -952057.52502351417
 111220.24715317739 -548507.20818684739 -946979.35520805139
 118650.13825607483 -556313.35435167002 -941508.14997099619
 126520.9032440212 -564535.47525434068 -935570.49879828526
 134364.87224266111 -573306.78479911422 -929120.77342534706
 141802.38754615452 -582627.96396034723 -922191.27001811855
 150006.47971733299 -592125.18904004339 -914814.63507483667
 159189.38718634084 -601863.41469571693 -906873.29272509099
 168314.86026106015 -612225.77524552168 -898248.13272297964
 175314.57244499831 -623604.16651764326 -889034.66984716791
 184791.6284604051 -634396.72624063957 -879427.56824317842
 197451.93287439871 -644740.81716774579 -869092.63768716343
 211633.43910933938 -655543.67873184779 -857597.67532653071
 217203.74950134548 -669954.86492322513 -844975.15358042368
 232456.01601061065 -680832.2469057244 -832124.78162459342
 259534.24207793787 -688361.87280616409 -817801.8765298971
 0 0 -0
 0 0 -0
 0 0 -0
 0 0 -0
 0 0 -0
 0 0 -0
 0 0 -0
 0 0 -0
 0 0 -0
 0 0 -0
 0 0 -0
 0 0 -0
 0 0 -0
 0 0 -0
 0 0 -0
 0 0 -0
 0 0 -0
 0 0 -0
 0 0 -0
 0 0 -0
 0 0 -0
 0 0 -0
 0 0 -0
 0 0 -0
 0 0 -0
 0 0 -0
 0 0 -0
 0 0 -0
 0 0 -0
 0 0 -0
 0 0 -0
 0 0 -0
 0 0 -0
 0 0 -0
 0 0 -0
 0 0 -0
 0 0 -0
 0 0 -0
 0 0 -0
 0 0 -0
 0 0 -0
 0 0 -0
 0 0 -0
 0 0 -0
 0 0 -0
 0 0 -0
 0 0 -0
 0 0 -0
 0 0 -0
 0 0 -0
 0 0 -0
 0 0 -0
 0 0 -0
 0 0 -0
 0 0 -0
 0 0 -0
 0 0 -0
 0 0 -0
 0 0 -0
 0 0 -0
 0 0 -0
 0 0 -0
 0 0 -0
 0 0 -0
 0 0 -0
 0 0 -0
 0 0 -0
 0 0 -0
 0 0 -0
 0 0 -0
 0 0 -0
 0 0 -0
 0 0 -0
 0 0 -0
 0 0 -0
 0 0 -0
 0 0 -0
 0 0 -0
 0 0 -0
 0 0 -0
 0 0 -0
 0 0 -0
 0 0 -0
 0 0 -0
 0 0 -0
 0 0 -0
 0 0 -0
 0 0 -0
 0 0 -0
 0 0 -0
 0 0 -0
 0 0 -0
 0 0 -0
 0 0 -0
 0 0 -0
 0 0 -0
 0 0 -0
 0 0 -0
 0 0 -0
 0 0 -0
 0 0 -0
 0 0 -0
 0 0 -0
 0 0 -0
 0 0 -0
 0 0 -0
 0 0 -0
 0 0 -0
 0 0 -0
 0 0 -0
 0 0 -0
 0 0 -0
 0 0 -0
 0 0 -0
 0 0 -0
 0 0 -0
 0 0 -0
 0 0 -0
 0 0 -0
 0 0 -0
 0 0 -0
 0 0 -0
 0 0 -0
 0 0 -0
 0 0 -0
 0 0 -0
 0 0 -0
 0 0 -0
 0 0 -0
 0 0 -0
 0 0 -0
 0 0 -0
 -270283.50807159906 -671751.79883135331 -828067.83902730478
 -245952.252225506 -662144.91353947483 -843250.61701667483
 -236397.62896793909 -647048.15958974394 -857580.80679890537
 -220760.55445379307 -635126.22205892298 -870562.72585633583
 -207522.5565518275 -623256.7580105745 -882318.19777013652
 -197283.94251276762 -610826.55252982222 -893291.64820407401
 -185834.02873599849 -599409.92184792703 -903423.18951530708
 -174958.15650623775 -588545.57361649652 -912690.39178045886
 -165506.01407180278 -577823.0551798126 -921264.49850666232
 -157163.78695347425 -567179.15951929963 -929304.76436819381
 -148676.99170485928 -557021.38468244101 -936814.99195094523
 -140330.85832544087 -547346.486396119 -943779.14473221323
 -132458.14573833885 -538042.91281299456 -950244.52831851097
 -124999.91179192091 -529082.90322832018 -956266.85792382422
 -117635.81003895721 -520563.51152022218 -961860.40913960768
 -110417.54246425012 -512504.18920618558 -967030.20757485426
 -103496.02005820644 -504862.20989585156 -971803.84998784016
 -96916.383406041685 -497594.29683972528 -976220.84098838642
 -90583.817659046792 -490698.05000867671 -980311.17289154383
 -84357.807668546913 -484211.36127000273 -984084.91396952502
 -78230.218829818885 -478154.91906794207 -987546.40712878352
 -72270.294972804084 -472516.84844393807 -990709.25725015427
 -66535.562013310831 -467266.92751498893 -993596.81835152581
 -61025.471339477088 -462376.94044226548 -996234.63942740124
 -55674.916327181723 -457837.01452069485 -998641.86364619143
 -50377.903859974205 -453663.32482487604 -1000825.4865417418
 -45039.100019863865 -449891.46741416055 -1002780.707342006
 -39631.369649718952 -446554.59109416977 -1004499.0551077719
 -34184.275049070558 -443669.90102490736 -1005976.3686408931
 -28747.352260048228 -441237.78012845007 -1007215.3747463122
 -23362.883210428663 -439247.19046581921 -1008224.2217661608
 -18054.448330202842 -437681.86526071222 -1009013.6875768317
 -12825.979909936401 -436525.0268872825 -1009594.6687361256
 -7665.4789814215264 -435762.35834013467 -1009976.43907461
 -2549.9384711619514 -435383.65706217906 -1010165.6146280946
 2549.9384711224766 -435383.65705629298 -1010165.6146306316
 7665.4789815396316 -435762.35834600829 -1009976.4390720751
 12825.97990974057 -436525.0268814342 -1009594.6687386568
 18054.448330474952 -437681.86526652222 -1009013.6875743063
 23362.88321008232 -439247.19046006078 -1008224.2217686772
 28747.352260466207 -441237.78013414243 -1007215.3747438067
 34184.275048583935 -443669.90101929556 -1005976.3686433847
 39631.369650270826 -446554.59109968628 -1004499.0551052972
 45039.100019250269 -449891.46740875341 -1002780.7073444593
 50377.903860645703 -453663.32483016094 -1000825.4865393124
 55674.916326456143 -457837.01451554301 -998641.86364859377
 61025.471340252428 -462376.94044727593 -996234.63942502823
 66535.562012490598 -467266.92751012737 -993596.81835386704
 72270.294973663549 -472516.8484486427 -990709.25724784762
 78230.21882892646 -478154.91906340356 -987546.40713105153
 84357.80766946559 -484211.3612743647 -984084.91396729986
 90583.817658108441 -490698.05000450113 -980311.1728937208
 96916.383406993264 -497594.29684370686 -976220.84098626254
 103496.02005724801 -504862.20989206922 -971803.84998990712
 110417.54246520836 -512504.18920976337 -967030.20757284889
 117635.81003800697 -520563.51151685586 -961860.40914154588
 124999.91179285527 -529082.90323146724 -956266.85792196111
 132458.14573742749 -538042.91281007219 -950244.52832029259
 140330.85832632301 -547346.48639881692 -943779.14473051752
 148676.99170401384 -557021.38467996963 -936814.99195254873
 157163.78695427455 -567179.15952153853 -929304.7643666917
 165506.01407105415 -577823.05517780792 -921264.4985080536
 174958.1565069326 -588545.57361828082 -912690.39177917538
 185834.02873536455 -599409.92184635927 -903423.1895164774
 197283.94251332796 -610826.55253116041 -893291.64820303523
 207522.55655135337 -623256.75800948287 -882318.19777101907
 220760.55445418807 -635126.2220598025 -870562.72585559369
 236397.62896763787 -647048.15958908945 -857580.80679948244
 245952.25222567469 -662144.91353983083 -843250.61701634608
 270283.50807151367 -671751.79883117834 -828067.83902747463
 0 0 -0
 0 0 -0
 0 0 -0
 0 0 -0
 0 0 -0
 0 0 -0
 0 0 -0
 0 0 -0
 0 0 -0
 0 0 -0
 0 0 -0
 0 0 -0
 0 0 -0
 0 0 -0
 0 0 -0
 0 0 -0
 0 0 -0
 0 0 -0
 0 0 -0
 0 0 -0
 0 0 -0
 0 0 -0
 0 0 -0
 0 0 -0
 0 0 -0
 0 0 -0
 0 0 -0
 0 0 -0
 0 0 -0
 0 0 -0
 0 0 -0
 0 0 -0
 0 0 -0
 0 0 -0
 0 0 -0
 0 0 -0
 0 0 -0
 0 0 -0